<?xml version="1.0" encoding="UTF-8"?>

<!-- generated on 2022-10-06 14:55:16 by Eclipse SUMO GUI Version 1.12.0
<configuration xmlns:xsi="http://www.w3.org/2001/XMLSchema-instance" xsi:noNamespaceSchemaLocation="http://sumo.dlr.de/xsd/sumoConfiguration.xsd">

    <input>
        <net-file value="C:\Users\lenovo\Sumo-workspace\SanFrancisco-Scenario1\Scenario1\san_francisco.net.xml"/>
        <route-files value="C:\Users\lenovo\Sumo-workspace\SanFrancisco-Scenario1\Scenario1\san_francisco.rou.xml,C:\Users\lenovo\Sumo-workspace\SanFrancisco-Scenario1\Scenario1\trip.add.xml"/>
        <additional-files value="C:\Users\lenovo\Sumo-workspace\SanFrancisco-Scenario1\Scenario1\parking.add.xml,C:\Users\lenovo\Sumo-workspace\SanFrancisco-Scenario1\Scenario1\detectors.add.xml"/>
    </input>

    <output>
        <vehroute-output value="C:\Users\lenovo\Sumo-workspace\SanFrancisco-Scenario1\Scenario1\Results\vehroutes.xml"/>
    </output>

    <time>
        <begin value="0"/>
        <end value="3200"/>
        <step-length value="1"/>
    </time>

    <processing>
        <time-to-teleport value="1500"/>
    </processing>

    <report>
        <verbose value="true"/>
        <xml-validation value="never"/>
        <xml-validation.routes value="never"/>
    </report>

    <gui_only>
        <gui-settings-file value="C:\Users\lenovo\Sumo-workspace\SanFrancisco-Scenario1\Scenario1\gui-settings.cfg"/>
        <tracker-interval value="1"/>
    </gui_only>

</configuration>
-->

<detector xmlns:xsi="http://www.w3.org/2001/XMLSchema-instance" xsi:noNamespaceSchemaLocation="http://sumo.dlr.de/xsd/det_e1_file.xsd">
</detector>
