<?xml version="1.0" encoding="UTF-8"?>

<!-- generated on 2022-06-28 16:24:14 by Eclipse SUMO sumo Version 1.12.0
<configuration xmlns:xsi="http://www.w3.org/2001/XMLSchema-instance" xsi:noNamespaceSchemaLocation="http://sumo.dlr.de/xsd/sumoConfiguration.xsd">

    <input>
        <net-file value="san_francisco.net.xml"/>
        <route-files value="san_francisco.rou.xml,trip.add.xml"/>
        <additional-files value="parking.add.xml,rerouter.xml"/>
    </input>

    <output>
        <vehroute-output value="Results\vehroutes.xml"/>
    </output>

    <time>
        <begin value="0"/>
        <end value="3200"/>
        <step-length value="1"/>
    </time>

    <processing>
        <time-to-teleport value="1500"/>
    </processing>

    <report>
        <verbose value="true"/>
        <xml-validation value="never"/>
        <xml-validation.routes value="never"/>
    </report>

    <traci_server>
        <remote-port value="50683"/>
    </traci_server>

    <gui_only>
        <gui-settings-file value="gui-settings.cfg"/>
        <tracker-interval value="1"/>
    </gui_only>

</configuration>
-->

<routes xmlns:xsi="http://www.w3.org/2001/XMLSchema-instance" xsi:noNamespaceSchemaLocation="http://sumo.dlr.de/xsd/routes_file.xsd">
    <vehicle id="3302" depart="3.00" color="yellow" arrival="145.00">
        <route edges="31129765 123741465 8915117 8915115#0 8915115#1 254299118#0 254299118#1 254299118#2 254299118#3 -254305050#1 -254305050#0 -264874017#5 8922291#0"/>
    </vehicle>

    <vehicle id="1657" depart="135.00" color="yellow" arrival="251.00">
        <route edges="31129765 123741465 8915117 27432609 157812260#7 157812260#8 157812260#9 25657409#10 25657409#11 25657409#12 25657409#13 25657409#14 -43100739"/>
    </vehicle>

    <vehicle id="11567" depart="90.00" color="yellow" arrival="258.00">
        <route edges="-91181760#0 29059494 29059495#0 29059495#3 -133376114#2 30029172#2 27166421#8 24335483#4 24335483#6 24335483#7 -26938418#2 -26938418#1 -E0 -87297164#7 -87297164#6 -87297164#5 -87297164#4 -87297164#3 206662304#12 206662304#13"/>
    </vehicle>

    <vehicle id="12781" depart="99.00" color="yellow" arrival="260.00">
        <route edges="144489137#0 144489137#1 144489137#2 144489137#3 144489137#7 254758131#0 254758131#2 254758132#0 254758132#2 290052332#1 290052332#4 -144489136 -204884397 88597544#0 88597544#2 224316522#0"/>
    </vehicle>

    <vehicle id="10512" depart="180.00" color="yellow" arrival="276.00">
        <route edges="8916792 28518571#0 28518571#1 157812260#0 247966218#3"/>
    </vehicle>

    <vehicle id="8619" depart="63.00" color="yellow" arrival="281.00">
        <route edges="27167762 123741465 123741454#0 123741454#1 8915415 143666207#0 254299117#0 254299117#1 -88559661#2 28842183 -283537644#1 -283537552#1 -283537552#0 -35675861#1 8922307 -8922307 35675861#1"/>
    </vehicle>

    <vehicle id="7877" depart="48.00" color="yellow" arrival="285.00">
        <route edges="90077241 8921938 120813417 31129372 35675861#1 283537552#0 283537552#1 283537644#0 283537644#2 -225518512#1"/>
    </vehicle>

    <vehicle id="17642" depart="117.00" color="yellow" arrival="292.00">
        <route edges="31129765 123741465 123741454#0 123741454#1 8915415 143666207#0 254299117#0 254299117#1 -88559661#2 -88559661#0"/>
    </vehicle>

    <vehicle id="11317" depart="84.00" color="yellow" arrival="300.00">
        <route edges="90077241 8921938 120813417 31129372 35675861#1 283537552#0 283537552#1 283537644#0 283537644#2 88559661#0 88559661#1 88559680#0 8916551 47172834#0 -8919616#1"/>
    </vehicle>

    <vehicle id="4888" depart="18.00" color="yellow" arrival="330.00">
        <route edges="225806031#0 225806031#2 254759928#0 254759928#1 254759928#2 254759928#3 254759927#0 254759927#1 111547662#0 88572901#0 264874017#0 25657409#17 25657409#18 25657409#19 255168047#0 255168047#3 255168046#0 255168046#2 225518502#0 329607867 -283537552#1 -283537552#0 -35675861#1 8922307"/>
    </vehicle>

    <vehicle id="2648" depart="222.00" color="yellow" arrival="339.00">
        <route edges="144489137#0 144489137#1 144489137#2 254758122#6 254758122#7 225847522#0 8922164#5 8922164#6 254448252#0 -8918039#1"/>
    </vehicle>

    <vehicle id="5355" depart="24.00" color="yellow" arrival="342.00">
        <route edges="31129765 123741465 123741454#0 123741454#1 8915415 143666207#0 254299117#0 254299117#1 88559650 26944075#0 26944075#1 179235223 175129396#0 255330038#0 255330038#2 255330056#0 88466052#0 88466052#1 8922263#1 -8921065 30831808#0"/>
    </vehicle>

    <vehicle id="7871" depart="45.00" color="yellow" arrival="347.00">
        <route edges="-24310636#2 111089307#1 111089307#2 111089307#3 111089307#4 -27029200#1 -25758513 27029265#3 186400366#0 186400366#1 186400366#2 186400366#5 186400366#6 8915123 123741454#1 8915415 143666207#0 254299142#0 254299142#1 254299142#2 254299142#3"/>
    </vehicle>

    <vehicle id="3522" depart="228.00" color="yellow" arrival="357.00">
        <route edges="225806031#0 -8918039#0 8922072#0 8922072#1 8918033#0 8918033#1 8918033#2 89624695#0 89624695#2 89624695#3 27029263 -24335439#2 8917500#1 8921849#1 -25371463"/>
    </vehicle>

    <vehicle id="5221" depart="21.00" color="yellow" arrival="366.00">
        <route edges="224384035#0 224384035#1 254758121#0 254758121#1 254758121#3 26988009#0 26988009#4 254758122#0 254758122#1 254758122#3 254758122#4 254758122#6 254758122#7 225847522#0 225847522#1 225847522#2 254759933#0 254759933#2 254759933#4 204963435 225847525 204963504 204963631 -8917791 -24335439#2 8917500#1 8921849#1 8921849#2"/>
    </vehicle>

    <vehicle id="4802" depart="15.00" color="yellow" arrival="369.00">
        <route edges="-23883760 28518571#0 28518571#1 133755923#0 -7373728 7373736#0 -162931811#0 141688972#2 255330036#0 255330036#3 255330036#4 255330036#5 255330036#7 -8919615#1 -8919615#0 8916553#1 -8916551 -88559680#2 -88559661#2 -88559661#0 -225518512#1 225518502#0 225518502#2 225518502#3 283537380#0 283537380#1"/>
    </vehicle>

    <vehicle id="6644" depart="36.00" color="yellow" arrival="369.00">
        <route edges="-23883761 28518571#1 133755923#0 -7373728 7373736#0 -162931811#0 141688972#2 255330036#0 255330036#3 255330036#4 255330036#5 255330036#7 -8919615#1 -8919615#0 8916553#1 -8916551 -88559680#2 -88559661#2 28842183 -283537644#1 -283537552#1 -283537552#0 -35675861#1 8922307 364480601#0"/>
    </vehicle>

    <vehicle id="11582" depart="93.00" color="yellow" arrival="383.00">
        <route edges="123867455 -27659928#0 30454437 gneE21 22277701 -247966218#8 -247966218#7 -247966218#6 -247966218#5 -247966218#4 -247966218#3 -247966218#2 -26943758#1 162931810 256787755#0 254299121#8 254299121#9 25758513 27029246 -191296172#2 111089307#3 111089307#4"/>
    </vehicle>

    <vehicle id="11119" depart="81.00" color="yellow" arrival="391.00">
        <route edges="-8916048 111089307#4 -27029200#1 -25758513 27029265#3 186400366#0 186400366#1 186400366#2 186400366#5 186400366#6 8915123 123741454#1 8915415 143666207#0 254299117#0 254299117#1 88559650 26944075#0 26944075#1 179235223"/>
    </vehicle>

    <vehicle id="18185" depart="123.00" color="yellow" arrival="396.00">
        <route edges="144489137#0 144489137#1 144489137#2 144489137#3 144489137#7 254758131#0 254758131#2 254758132#0 254758132#2 290052332#1 290052332#4 -144489136 -204884397 -228196396 -204884387#2 -224384019#1 -224384018 -225719777#1 -204884378#1 -228186482#1 -202317711 88597553#0 88597553#1 88597553#2"/>
    </vehicle>

    <vehicle id="5398" depart="27.00" color="yellow" arrival="401.00">
        <route edges="23959829#0 8921849#0 8921849#1 8921849#2 -24310636#0 24335440#0 24335440#1 24335440#2 -27029246 -25758513 27029265#3 186400366#0 186400366#1 186400366#2 186400366#5 186400366#6 8915123 123741454#1 8915415 107674372#0 255330069#0 255330069#1 26943653#0 52432939 255330048 255351721#0 -27656675 26943623 143617589#0"/>
    </vehicle>

    <vehicle id="7473" depart="42.00" color="yellow" arrival="408.00">
        <route edges="8916767#0 8916767#1 146155388 -254758127#15 -48211062#11 -48211062#10 -48211062#9 -30029708#2 -30029708#1 -30029708#0 30030100#0 30030100#2 148846995 148846996#0 148846996#1 148846996#2 -48211487#2 -48211487#1 -48211487#0 48211960 87376672#0 87376672#1 -91185877#1 -91185877#0 -254971056#1 -8922640#1 27054205#0 27054205#1 27054209#0 -254756526#1 -254396719#1 -254466686#4 27054213#4 27054213#6 91181774#0 8919020#0 88572905 91181770#0 283537380#0 8919338 8915752"/>
    </vehicle>

    <vehicle id="4545" depart="150.00" color="yellow" arrival="413.00">
        <route edges="254396707#6 254396707#7 254396707#8 254758115#0 254758115#2 254758114#0 254758114#1 254758114#2 286003244#1 286003244#6 29023741#0 29023741#1 -287958606#3 -287958606#1 -254396709#1 -254466686#4 27054213#4"/>
    </vehicle>

    <vehicle id="16753" depart="204.00" color="yellow" arrival="418.00">
        <route edges="27167762 123741465 123741454#0 123741454#1 8915415 143666207#0 254299117#0 254299117#1 88559650 26944075#0 26944075#1 179235223 175129396#0 -99231466 99231468#0 35675861#0"/>
    </vehicle>

    <vehicle id="15834" depart="111.00" color="yellow" arrival="423.00">
        <route edges="27398045#1 27398045#2 27398045#3 27398045#4 27398045#5 27398045#6 27398045#7 8919058 8916882#0 -91181760#0 -100400946 -91181759#5 -28841115#2 -28841115#1 gneE24 29023785#0 111586257 28841123#0 224316522#0 133733590#0 -224384019#1 88597577#0 88559691#0 88559691#4 225518512#0 88559661#0 28842183 283537644#2 -225518512#1"/>
    </vehicle>

    <vehicle id="9774" depart="69.00" color="yellow" arrival="426.00">
        <route edges="133733582#2 225853134 225853133 254759933#4 8921141#0 -88572914#2 -88572941 -88572932#2 -88572932#1 -88572932#0 88572895#0 214545530#0 25657409#19 255168047#0 255168047#3 255168046#0 255168046#2 225518502#0 225518502#2 225518502#3 283537380#0 8919338"/>
    </vehicle>

    <vehicle id="4185" depart="144.00" color="yellow" arrival="438.00">
        <route edges="86303763#0 86303763#1 86303763#2 86303763#4 86303763#5 86303763#6 86303763#10 86303763#11 86303763#14 86303763#17 111586257 28841123#0 224316522#0 133733590#0 -224384019#1 88597577#0 88559691#0 88559691#4 225518512#0"/>
    </vehicle>

    <vehicle id="6083" depart="168.00" color="yellow" arrival="444.00">
        <route edges="31129765 123741465 123741454#0 123741454#1 8915415 143666207#0 254299117#0 254299117#1 -88559661#2 28842183 -283537644#1 -283537552#1 -283537552#0 -35675861#1 8922307 -8922307 35675861#1"/>
    </vehicle>

    <vehicle id="7891" depart="54.00" color="yellow" arrival="445.00">
        <route edges="8916792 28518571#0 28518571#1 133755923#0 133755923#1 143617587 -143617589#6 -143617589#2 -143617589#1 -111550911#3 -111550911#2 -111550911#1 -111550911#0 -111550910#2 -111550910#1 -111550910#0 8922234#0 8922234#2 255330056#0 88466052#0 88466052#1 8916922#0"/>
    </vehicle>

    <vehicle id="2380" depart="216.00" color="yellow" arrival="450.00">
        <route edges="224316521#3 254756525#5 254756525#6 254756525#7 -100400942#0 100400946 27166466#0 100400947#2 100400947#4 27166444 254758124#0 254297763#2 254297763#3 254758122#1 254758122#3 84734271#7 91181767"/>
    </vehicle>

    <vehicle id="18330" depart="129.00" color="yellow" arrival="451.00">
        <route edges="123867455 -27659928#0 30454437 gneE21 22277701 -254308553 -254305050#1 -8920435 8920452#1 254305033#2 254305033#3 254305033#4 157812260#8 157812260#9 157812260#10 157812260#11 88572922#0 35973460#1 263855294#0 263855294#3 254759933#0 8915763 33789566#0 33789567 26988030#2"/>
    </vehicle>

    <vehicle id="5045" depart="159.00" color="yellow" arrival="452.00">
        <route edges="-27029200#2 -27029200#1 -25758513 27029265#3 186400366#0 186400366#1 186400366#2 186400366#5 186400366#6 8915123 123741454#1 8915415 143666207#0 254299117#0 254299117#1 -88559661#2 28842183 -283537644#1 -283537552#1 -283537552#0 -35675861#1 -35675861#0 -35675862 27397692 27397691 -242896157#0"/>
    </vehicle>

    <vehicle id="2507" depart="219.00" color="yellow" arrival="464.00">
        <route edges="-204967525 -254758127#17 -254758127#16 -254758127#15 -254758127#14 -254758127#13 -254758127#12 -254758127#11 -254758127#9 -254758127#7 -254758127#5 -254758127#4 -254758127#3 35977367#1 87297164#7 E0 26938418#1 26938418#2 26938418#3 26938418#4 254758121#0 254758121#1 254758121#3 26988009#0 26988009#4 254758122#0 254758122#1 254758122#3 254758122#4"/>
    </vehicle>

    <vehicle id="4216" depart="231.00" color="yellow" arrival="464.00">
        <route edges="90077241 8921938 120813417 31129372 8922307 364480069 364480068#0 364480068#1 47172745 91181771#0"/>
    </vehicle>

    <vehicle id="6870" depart="246.00" color="yellow" arrival="468.00">
        <route edges="-133781749 -133781759#2 -133781759#1 -133781759#0 -27167270#2 -27167270#1 -27167270#0 -263855294#3 -263855294#0 -35973460#1 -228215681 -225432464 -207761516 -204884121 -225806041 -225806042#1 -365816000 225806056 283534317#0 283534317#1 283534317#2 255168047#0 8922858#0"/>
    </vehicle>

    <vehicle id="14079" depart="192.00" color="yellow" arrival="475.00">
        <route edges="28319343#2 28319343#3 24245406 224199013#0 224199013#1 224199013#2 224373753 88597563#0 256400244#0 225432457 -99231486 364480601#0 283537380#0 283537380#1 283537380#2 8915351 50690291#0 50690291#1"/>
    </vehicle>

    <vehicle id="16672" depart="114.00" color="yellow" arrival="483.00">
        <route edges="142972028#1 89624695#0 8916932 88572943#1 -225847525 -365816004 -225847526 -228215681 -225432464 -207761516 -204884121 -225806041 -225806042#1 -365816000 -228201785#1 -228201785#0 -204884397 -228196396 -204884387#2 -224384019#1 -224384018 -225719777#1 -204884378#1 -228186482#1 -202317711 -224373753 28319343#0 28319343#1 28319343#2 28319343#3 254756521#0 254756521#3 254756521#5 254756521#6 32931798#3 27146036#0 27146036#1 -p3#1"/>
    </vehicle>

    <vehicle id="6508" depart="171.00" color="yellow" arrival="484.00">
        <route edges="111089307#0 111089307#1 111089307#2 191296172#1 25657409#0 25657409#2 25657409#3 25657409#4 25657409#5 25657409#7 25657409#9 25657409#10 25657409#11 25657409#12 25657409#13 25657409#14 25657409#15 25657409#16 25657409#17 25657409#18 25657409#19 255168047#0 255168047#3 255168046#0 255168046#2 225518502#0 225518502#2 225518502#3 111049100#0 99231460 99231482 27397691 242896157#1 88463830 88466052#1 8916922#0"/>
    </vehicle>

    <vehicle id="12843" depart="264.00" color="yellow" arrival="496.00">
        <route edges="31129765 123741465 123741454#0 123741454#1 8915415 143666207#0 254299117#0 254299117#1 -88559661#2 28842183 -283537644#1 -283537552#1 -283537552#0 -35675861#1 8922307 -8922307"/>
    </vehicle>

    <vehicle id="8374" depart="177.00" color="yellow" arrival="500.00">
        <route edges="-27029200#2 -27029200#1 -25758513 27029265#3 186400366#0 186400366#1 186400366#2 186400366#5 186400366#6 8915123 123741454#1 8915415 143666207#0 254299117#0 254299117#1 88559650 26944075#0 26944075#1 179235223 175129396#0 255330038#0 255330038#2 255330056#0 88466052#0"/>
    </vehicle>

    <vehicle id="14823" depart="105.00" color="yellow" arrival="502.00">
        <route edges="191296172#0 191296172#1 -24335440#2 -24335440#1 -24335440#0 24335439#0 24335439#1 24335439#2 -27029263 -88572874#2 -88572874#1 -88572874#0 -88572887#1 -88572887#0 -88572914#2 -88572941 -88572932#2 -88572932#1 -88572932#0 -51392400 -51392402#0 -51392402#1 -111560680 86334994#0 111552058#0 -228196396 -204884387#2 -224384019#1 -224384018 -225719777#1 -204884378#1 -228186482#1 -202317711 -224373753 28319343#0 28319343#1 28319343#2 28319343#3 254756521#0 254756521#3 254756521#5 254756521#6 262943779 -28843496 -47108420#4 47108420#4"/>
    </vehicle>

    <vehicle id="11572" depart="258.00" color="yellow" arrival="525.00">
        <route edges="-35977367#2 87297164#7 E0 26938418#1 26938418#2 26938418#3 26938418#4 30029560#0 30029560#1 288065247#3 288065247#4 288065247#6 27166406#1 27166444 254758124#0 254758124#1 254758124#3 254758124#6 254758125#0 277480563#0 277480424#2 26938124#3 26938124#4"/>
    </vehicle>

    <vehicle id="1720" depart="210.00" color="yellow" arrival="527.00">
        <route edges="255330036#13 -255330036#13 -255330036#12 -255330036#11 -255330036#10 -88559680#4 -88559680#2 -88559661#2 -88559661#0 88559702#0 88559702#1 88559702#2 25758528#0 25758528#1 8915151 31129732#1 26779355 8915704#0 8915704#1 254299121#6 254299121#8 254299121#9 25758513 27029200#0 -111089307#4 -111089307#3 -111089307#2 -111089307#1 24310636#2"/>
    </vehicle>

    <vehicle id="12299" depart="261.00" color="yellow" arrival="528.00">
        <route edges="254396707#6 254396707#7 254396707#8 254758115#0 254758115#2 254758114#0 254758114#1 254758114#2 286003244#1 286003244#6 286003244#9 224316514#0 254306572#0 224316513#0 91181774#0 8919020#0 88572905 91181770#0 111049100#0 99231460"/>
    </vehicle>

    <vehicle id="7712" depart="174.00" color="yellow" arrival="530.00">
        <route edges="90077241 8921938 120813417 202485364 8915062 -214545530#7 -214545530#6 8920281#1 8920281#2 -264874017#3 -264874017#2 91181771#18 91181771#19 91181771#20 157812260#11 88572922#0 -228215681 -225432464 -207761516 -204884121 204884121"/>
    </vehicle>

    <vehicle id="7625" depart="249.00" color="yellow" arrival="531.00">
        <route edges="31129765 123741465 123741454#0 123741454#1 8915415 143666207#0 254299117#0 254299117#1 -88559661#2 28842183 -283537644#1 -283537552#1 -283537552#0 -35675861#1 8922307 364480069 364480068#0 364480068#1 47172745 91181771#0"/>
    </vehicle>

    <vehicle id="14413" depart="267.00" color="yellow" arrival="535.00">
        <route edges="31129765 123741465 123741454#0 123741454#1 8915415 143666207#0 254299142#0 254299142#1 254299142#2 254299142#3 254299142#7 254299142#9 254299142#11 111552058#0 88597544#0 88597544#2 224316520#0 224316520#1 254297759#0 224316514#0 254306572#0"/>
    </vehicle>

    <vehicle id="4672" depart="351.00" color="yellow" arrival="535.00">
        <route edges="27167762 123741465 123741454#0 123741454#1 8915415 143666207#0 254299142#0 254299142#1 254299142#2 254299142#3 255168046#0 255168046#2 225518502#0 329607867"/>
    </vehicle>

    <vehicle id="4794" depart="237.00" color="yellow" arrival="539.00">
        <route edges="-24310636#2 111089307#1 111089307#2 111089307#3 111089307#4 -27029200#1 -25758513 27029265#3 186400366#0 186400366#1 186400366#2 186400366#5 186400366#6 8915123 123741454#1 8915415 143666207#0 254299117#0 254299117#1 -88559661#2 28842183 -283537644#1 -283537552#1 -283537552#0 -35675861#1 -35675861#0"/>
    </vehicle>

    <vehicle id="8757" depart="315.00" color="yellow" arrival="541.00">
        <route edges="8915254 186400366#2 186400366#5 186400366#6 8915123 123741454#1 8915415 143666207#0 254299142#0 254299142#1 254299142#2 254299142#3 255168046#0 255168046#2 -88559691#6 91181771#3"/>
    </vehicle>

    <vehicle id="15981" depart="201.00" color="yellow" arrival="570.00">
        <route edges="-24310636#2 111089307#1 111089307#2 111089307#3 111089307#4 -27029200#1 -25758513 27029265#3 186400366#0 186400366#1 186400366#2 186400366#5 186400366#6 8915123 123741454#1 8915415 143666207#0 254299117#0 254299117#1 88559650 26944075#0 26944075#1 179235223 175129396#0 -99231466 99231468#0 35675861#0"/>
    </vehicle>

    <vehicle id="15301" depart="273.00" color="yellow" arrival="572.00">
        <route edges="144489137#0 144489137#1 144489137#2 144489137#3 144489137#7 254758131#0 254758131#2 254758132#0 254758132#2 290052332#1 290052332#4 -144489136 -204884397 -228196396 -204884387#2 -224384019#1 88597577#0 88559691#0 88559691#4 225518502#0 225518502#2 225518502#3"/>
    </vehicle>

    <vehicle id="15712" depart="198.00" color="yellow" arrival="579.00">
        <route edges="-206662304#13 -206662304#12 -206662304#11 -206662304#10 -206662304#8 -206662304#6 -206662304#4 -206662304#1 -254756527 148846996#1 148846996#2 -48211487#2 -48211487#1 -48211487#0 48211960 87376672#0 87376672#1 -91185877#1 -91185877#0 -254971056#1 -8922640#1 27054205#0 27054205#1 27054209#0 -254756526#1 -254396719#1 -254466686#4 -254466686#3 -254466686#2 -254466686#1 -254466686#0 254396710#0 254396710#1 88597563#0 256400244#0 -99231475 99231463#0"/>
    </vehicle>

    <vehicle id="6319" depart="243.00" color="yellow" arrival="583.00">
        <route edges="-133781749 -133781759#2 -133781759#1 -133781759#0 -27167270#2 -27167270#1 -27167270#0 -263855294#3 -263855294#0 -35973460#1 -228215681 -225432464 -207761516 -204884121 -225806041 -225806042#1 -365816000 225806056 283534317#0 283534317#1 283534317#2 255168047#0 255168047#3 255168046#0 255168046#2 225518502#0 225518502#2 225518502#3 111049100#0 99231460 99231482 27397691 242896157#1 88463830"/>
    </vehicle>

    <vehicle id="9630" depart="357.00" color="yellow" arrival="586.00">
        <route edges="8916767#0 8916767#1 146155388 -254758127#15 -48211062#11 -48211062#10 -48211062#9 -30029708#2 -30029708#1 -30029708#0 30030100#0 30030100#2 148846995 148846996#0 148846996#1 148846996#2 -48211487#2 -48211487#1 -48211487#0 48211960 87376672#0 87376672#1 -91185877#1 -91185877#0 -254971056#1 -8922640#1 27054205#0 27054205#1 27054209#0 -254756526#1 -254396719#1 -254466686#4"/>
    </vehicle>

    <vehicle id="12035" depart="405.00" color="yellow" arrival="586.00">
        <route edges="90077241 8921938 120813417 31129372 8922307 364480601#0"/>
    </vehicle>

    <vehicle id="16444" depart="333.00" color="yellow" arrival="599.00">
        <route edges="-133755930#1 -133755930#0 -27656675 26943623 133735130#0 133735130#2 133735130#4 254299142#0 254299142#1 254299142#2 254299142#3 254299142#7 254299142#9 254299142#11 111552058#0 88597544#0 88597544#2 224316520#0 224316520#1 254297759#0 224316514#0 287958607#3 133733593#1"/>
    </vehicle>

    <vehicle id="4523" depart="147.00" color="yellow" arrival="609.00">
        <route edges="31129765 123741465 123741454#0 123741454#1 123741454#2 123741454#3 123741452 202317709 50690291#0 50690291#1 gneE4 90077241 8921938 120813417 202485364 31129732#0"/>
    </vehicle>

    <vehicle id="4563" depart="234.00" color="yellow" arrival="609.00">
        <route edges="-27570786#2 -27570786#1 -34128712 -34128471#1 -143666206 -30831816#3 -30831816#2 -30831816#1 -30831816#0 8922243#0 8922243#1 8922283#0 88142688#0 88142688#5 88142688#6 88142687#0 88142687#1 359898623#0 359898622#0 24335489#0 359898157#0 283512618#0 283512618#3 283512618#5 88463827#0 8916922#1 8916922#3 254971064#0 99231463#0"/>
    </vehicle>

    <vehicle id="18646" depart="282.00" color="yellow" arrival="611.00">
        <route edges="254758124#0 254758124#1 86303763#6 86303763#10 86303763#11 86303763#14 86303763#17 111586257 28841123#0 224316522#0 133733590#0 -224384019#1 88597577#0 88559691#0 88559691#4 225518502#0 329607867 27772070 202317709 50690291#0 50690291#1"/>
    </vehicle>

    <vehicle id="18357" depart="336.00" color="yellow" arrival="611.00">
        <route edges="31129765 123741465 123741454#0 123741454#1 8915415 143666207#0 254299142#0 254299142#1 254299142#2 254299142#3 254299142#7 254299142#9 254299142#11 111552058#0 88597544#0 88597544#2 224316520#0 224316520#1 254297759#0 224316521#0 224316521#1 -287958606#1 287958606#0"/>
    </vehicle>

    <vehicle id="2609" depart="285.00" color="yellow" arrival="612.00">
        <route edges="123867455 8920391#0 255330048 255351748 -26943653#1 -143617589#6 -143617589#2 -143617589#1 133735130#0 255330036#7 -8919615#1 -8919615#0 8916553#1 -8916551 -88559680#2 -88559661#2 28842183 -283537644#1 -283537552#1 -283537552#0 -35675861#1 8922307 364480069 364480068#0 364480068#1 364480068#2 88572881#0 305585433 228186482#0"/>
    </vehicle>

    <vehicle id="14439" depart="369.00" color="yellow" arrival="620.00">
        <route edges="31129765 123741465 123741454#0 123741454#1 8915415 143666207#0 254299117#0 254299117#1 -88559661#2 28842183 -283537644#1 -283537552#1 -283537552#0 -35675861#1 8922307 364480069 364480068#0 364480068#1 -225432462#1 -99231475"/>
    </vehicle>

    <vehicle id="3457" depart="288.00" color="yellow" arrival="632.00">
        <route edges="90077241 8921938 120813417 202485364 8915062 -214545530#7 -214545530#6 8920281#1 8920281#2 -264874017#3 -264874017#2 91181771#18 91181771#19 91181771#20 157812260#11 88572922#0 -228215681 -225432464 -207761516 -204884121"/>
    </vehicle>

    <vehicle id="12593" depart="327.00" color="yellow" arrival="632.00">
        <route edges="191296172#0 191296172#1 25657409#0 25657409#2 25657409#3 25657409#4 25657409#5 25657409#7 25657409#9 25657409#10 25657409#11 25657409#12 25657409#13 25657409#14 25657409#15 25657409#16 25657409#17 25657409#18 25657409#19 255168047#0 255168047#3 255168046#0 255168046#2 225518502#0 225518502#2 225518502#3 111049100#0 99231460 99231482"/>
    </vehicle>

    <vehicle id="5603" depart="387.00" color="yellow" arrival="633.00">
        <route edges="90077241 8921938 120813417 31129372 35675861#1 283537552#0 283537552#1 283537644#0 283537644#2 88559702#0 88559702#1 88559702#2 254299142#3 255168046#0"/>
    </vehicle>

    <vehicle id="17010" depart="396.00" color="yellow" arrival="635.00">
        <route edges="142972028#1 89624695#0 89624695#2 89624695#3 27029264#0 27029264#1 27029264#2 27029265#0 25657409#2 25657409#3 25657409#4 25657409#5 25657409#7 25657409#9 25657409#10 25657409#11 25657409#12 25657409#13 25657409#14 25657409#15 25657409#16 25657409#17 25657409#18 25657409#19 255168047#0 8922858#0 8922858#1"/>
    </vehicle>

    <vehicle id="9165" depart="444.00" color="yellow" arrival="642.00">
        <route edges="31129765 123741465 123741454#0 123741454#1 8915415 143666207#0 254299142#0 254299142#1 254299142#2 -88559702#2 -88559702#1 -88559702#0 -225518512#1 225518502#0 225518502#2"/>
    </vehicle>

    <vehicle id="7765" depart="303.00" color="yellow" arrival="647.00">
        <route edges="224384035#0 224384035#1 30029560#0 -25372932#4 27398045#5 27398045#6 27398045#7 8919058 8916882#0 -91181760#0 -100400946 -91181759#5 -91181759#1 -287958606#3 -287958606#1 -254396709#1 -254466686#4 -254466686#3 -254466686#2 -254466686#1 -254466686#0 -8916375#1 224199013#2 -224200968 120256351 120256350#0 120256350#3"/>
    </vehicle>

    <vehicle id="11956" depart="420.00" color="yellow" arrival="648.00">
        <route edges="-35977367#2 87297164#7 E0 26938418#1 26938418#2 -24335483#8 -24335483#6 -24335483#5 -24335483#3 24335485#1 -30035647#1 -91182067 -91182068 -100400942#1 -100400942#0 -100400944 -286003243#1 286003244#1 286003244#6 286003244#9"/>
    </vehicle>

    <vehicle id="4061" depart="294.00" color="yellow" arrival="657.00">
        <route edges="-254297762#2 -254297762#0 -255168048#4 -255168048#3 34128718#1 -254299113#2 143666209#2 143666209#3 143666209#4 143666209#6 91185870#0 91185870#1 -30029708#0 30030100#0 30030100#2 148846995 148846996#0 148846996#1 148846996#2 -48211487#2 -48211487#1 -48211487#0 48211960 87376672#0 87376672#1 -91185877#1 -91185877#0 -254971056#1 -8922640#1 27054205#0 27054205#1 8916867#0 8916867#2 287958607#0 287958607#2 254306572#0 224316513#0 91181774#0 8919020#0 88572905 91181770#0 283537380#0 283537380#1 283537380#2 283537552#0"/>
    </vehicle>

    <vehicle id="14205" depart="408.00" color="yellow" arrival="658.00">
        <route edges="31129765 123741465 123741454#0 123741454#1 8915415 143666207#0 254299142#0 254299142#1 254299142#2 254299142#3 254299142#7 254299142#9 254299142#11 111552058#0 88597544#0 88597544#2 224316520#0 224316520#1 254297759#0 224316514#0 254306572#0"/>
    </vehicle>

    <vehicle id="10190" depart="360.00" color="yellow" arrival="662.00">
        <route edges="86303763#0 86303763#1 86303763#2 86303763#4 86303763#5 86303763#6 86303763#10 86303763#11 86303763#14 86303763#17 111586257 28841123#0 224316522#0 133733590#0 -224384019#1 88597577#0 88559691#0 88559691#4 225518502#0 329607867 -283537552#1 -283537552#0"/>
    </vehicle>

    <vehicle id="2398" depart="345.00" color="yellow" arrival="663.00">
        <route edges="90077241 8921938 120813417 31129372 8922307 364480069 364480068#0 364480068#1 364480068#2 88572881#0 88572881#3 88597575#0 88597575#1 88597575#3 88597575#6 27398048#4 27398048#2 254756520#0"/>
    </vehicle>

    <vehicle id="3621" depart="291.00" color="yellow" arrival="664.00">
        <route edges="142972028#1 89624695#0 89624695#2 89624695#3 27029264#0 27029264#1 27029264#2 27029265#0 25657409#2 25657409#3 25657409#4 25657409#5 25657409#7 25657409#9 25657409#10 25657409#11 25657409#12 25657409#13 25657409#14 25657409#15 25657409#16 25657409#17 25657409#18 25657409#19 255168047#0 255168047#3 255168046#0 255168046#2 225518502#0 225518502#2 225518502#3 111049100#0 99231460 99231482 -202485361#1"/>
    </vehicle>

    <vehicle id="294" depart="339.00" color="yellow" arrival="677.00">
        <route edges="225806031#0 225806031#2 254759928#0 254759928#1 254759928#2 254759928#3 254759927#0 254759927#1 111547662#0 88572901#0 264874017#0 25657409#17 25657409#18 214545530#3 214545530#4 214545530#7 143617593 254758139#0 254758139#1 162931811#0 7373736#1 255330069#1 26943653#0 52432939 255330048 255351721#0 -27656675 26943623 143617589#0"/>
    </vehicle>

    <vehicle id="5361" depart="411.00" color="yellow" arrival="683.00">
        <route edges="-204967525 -87297168 30029867#0 30029867#1 30029867#2 -30029708#2 -30029708#1 -30029708#0 30030100#0 30030100#2 148846995 30030472 -24335487#2 -24335487#1 -24335487#0 -24335486#2 -24335486#1 -30035647#1 -91182067 -91182068 -100400942#1 -100400942#0 -100400944 -286003243#1 286003244#1 gneE24 29023785#0 28841117#0 290080809#0 290080809#4"/>
    </vehicle>

    <vehicle id="17313" depart="381.00" color="yellow" arrival="686.00">