<?xml version="1.0" encoding="UTF-8"?>

<!-- generated on 2022-06-03 13:09:59 by Eclipse SUMO GUI Version 1.12.0
<configuration xmlns:xsi="http://www.w3.org/2001/XMLSchema-instance" xsi:noNamespaceSchemaLocation="http://sumo.dlr.de/xsd/sumoConfiguration.xsd">

    <input>
        <net-file value="san_francisco.net.xml"/>
        <route-files value="san_francisco.rou.xml,trip.add.xml"/>
        <additional-files value="parking.add.xml,detectors.add.xml"/>
    </input>

    <output>
        <vehroute-output value="Results\vehroutes.xml"/>
    </output>

    <time>
        <begin value="0"/>
        <end value="86400"/>
        <step-length value="1"/>
    </time>

    <processing>
        <time-to-teleport value="1500"/>
    </processing>

    <report>
        <verbose value="true"/>
        <xml-validation value="never"/>
        <xml-validation.routes value="never"/>
    </report>

    <traci_server>
        <remote-port value="58021"/>
    </traci_server>

    <gui_only>
        <gui-settings-file value="gui-settings.cfg"/>
        <tracker-interval value="1"/>
    </gui_only>

</configuration>
-->

<routes xmlns:xsi="http://www.w3.org/2001/XMLSchema-instance" xsi:noNamespaceSchemaLocation="http://sumo.dlr.de/xsd/routes_file.xsd">
</routes>
