<?xml version="1.0" encoding="UTF-8"?>

<!-- generated on 2022-06-08 11:20:23 by Eclipse SUMO sumo Version 1.12.0
<configuration xmlns:xsi="http://www.w3.org/2001/XMLSchema-instance" xsi:noNamespaceSchemaLocation="http://sumo.dlr.de/xsd/sumoConfiguration.xsd">

    <input>
        <net-file value="san_francisco.net.xml"/>
        <route-files value="san_francisco.rou.xml,trip.add.xml"/>
        <additional-files value="parking.add.xml,detectors.add.xml"/>
    </input>

    <output>
        <vehroute-output value="Results\vehroutes.xml"/>
    </output>

    <time>
        <begin value="0"/>
        <end value="3200"/>
        <step-length value="1"/>
    </time>

    <processing>
        <time-to-teleport value="1500"/>
    </processing>

    <report>
        <verbose value="true"/>
        <xml-validation value="never"/>
        <xml-validation.routes value="never"/>
    </report>

    <traci_server>
        <remote-port value="56260"/>
    </traci_server>

    <gui_only>
        <gui-settings-file value="gui-settings.cfg"/>
        <tracker-interval value="1"/>
    </gui_only>

</configuration>
-->

<detector xmlns:xsi="http://www.w3.org/2001/XMLSchema-instance" xsi:noNamespaceSchemaLocation="http://sumo.dlr.de/xsd/det_e1_file.xsd">
    <interval begin="0.00" end="3749.00" id="parkingArea_-100400946_0_293" nVehContrib="10" flow="9.60" occupancy="0.13" speed="10.29" harmonicMeanSpeed="10.07" length="5.00" nVehEntered="10"/>
    <interval begin="0.00" end="3749.00" id="parkingArea_-111089307#4_0_200" nVehContrib="33" flow="31.69" occupancy="0.42" speed="10.55" harmonicMeanSpeed="10.42" length="5.00" nVehEntered="33"/>
    <interval begin="0.00" end="3749.00" id="parkingArea_-111550911#2_0_98" nVehContrib="0" flow="0.00" occupancy="0.00" speed="-1.00" harmonicMeanSpeed="-1.00" length="-1.00" nVehEntered="0"/>
    <interval begin="0.00" end="3749.00" id="parkingArea_-111560681#2_0_153" nVehContrib="2" flow="1.92" occupancy="0.02" speed="11.87" harmonicMeanSpeed="11.85" length="5.00" nVehEntered="2"/>
    <interval begin="0.00" end="3749.00" id="parkingArea_-111586254#3_0_269" nVehContrib="1" flow="0.96" occupancy="0.01" speed="8.92" harmonicMeanSpeed="8.92" length="5.00" nVehEntered="1"/>
    <interval begin="0.00" end="3749.00" id="parkingArea_-133755923#0_0_161" nVehContrib="0" flow="0.00" occupancy="0.00" speed="-1.00" harmonicMeanSpeed="-1.00" length="-1.00" nVehEntered="0"/>
    <interval begin="0.00" end="3749.00" id="parkingArea_-133781759#1_0_346" nVehContrib="14" flow="13.44" occupancy="0.17" speed="10.81" harmonicMeanSpeed="10.70" length="5.00" nVehEntered="14"/>
    <interval begin="0.00" end="3749.00" id="parkingArea_-141688972#1_0_145" nVehContrib="0" flow="0.00" occupancy="0.00" speed="-1.00" harmonicMeanSpeed="-1.00" length="-1.00" nVehEntered="0"/>
    <interval begin="0.00" end="3749.00" id="parkingArea_-141688972#2_0_130" nVehContrib="1" flow="0.96" occupancy="0.01" speed="9.47" harmonicMeanSpeed="9.47" length="5.00" nVehEntered="1"/>
    <interval begin="0.00" end="3749.00" id="parkingArea_-143617587_0_133" nVehContrib="6" flow="5.76" occupancy="0.08" speed="10.27" harmonicMeanSpeed="10.22" length="5.00" nVehEntered="6"/>
    <interval begin="0.00" end="3749.00" id="parkingArea_-143666209#2_0_12" nVehContrib="0" flow="0.00" occupancy="0.00" speed="-1.00" harmonicMeanSpeed="-1.00" length="-1.00" nVehEntered="0"/>
    <interval begin="0.00" end="3749.00" id="parkingArea_-144346316#4_0_339" nVehContrib="16" flow="15.36" occupancy="0.20" speed="10.81" harmonicMeanSpeed="10.69" length="5.00" nVehEntered="16"/>
    <interval begin="0.00" end="3749.00" id="parkingArea_-144346316#5_0_340" nVehContrib="6" flow="5.76" occupancy="0.08" speed="9.56" harmonicMeanSpeed="9.51" length="5.00" nVehEntered="6"/>
    <interval begin="0.00" end="3749.00" id="parkingArea_-148846997#1_0_283" nVehContrib="0" flow="0.00" occupancy="0.00" speed="-1.00" harmonicMeanSpeed="-1.00" length="-1.00" nVehEntered="0"/>
    <interval begin="0.00" end="3749.00" id="parkingArea_-148847001#5_0_26" nVehContrib="0" flow="0.00" occupancy="0.00" speed="-1.00" harmonicMeanSpeed="-1.00" length="-1.00" nVehEntered="0"/>
    <interval begin="0.00" end="3749.00" id="parkingArea_-148847001#8_0_30" nVehContrib="0" flow="0.00" occupancy="0.00" speed="-1.00" harmonicMeanSpeed="-1.00" length="-1.00" nVehEntered="0"/>
    <interval begin="0.00" end="3749.00" id="parkingArea_-174822357#1_0_95" nVehContrib="0" flow="0.00" occupancy="0.00" speed="-1.00" harmonicMeanSpeed="-1.00" length="-1.00" nVehEntered="0"/>
    <interval begin="0.00" end="3749.00" id="parkingArea_-191296172#0_0_201" nVehContrib="3" flow="2.88" occupancy="0.04" speed="8.93" harmonicMeanSpeed="8.92" length="5.00" nVehEntered="3"/>
    <interval begin="0.00" end="3749.00" id="parkingArea_-204963504_0_187" nVehContrib="15" flow="14.40" occupancy="0.18" speed="11.31" harmonicMeanSpeed="11.20" length="5.00" nVehEntered="15"/>
    <interval begin="0.00" end="3749.00" id="parkingArea_-224384018_0_73" nVehContrib="19" flow="18.24" occupancy="0.23" speed="11.06" harmonicMeanSpeed="11.01" length="5.00" nVehEntered="19"/>
    <interval begin="0.00" end="3749.00" id="parkingArea_-225432462#1_0_61" nVehContrib="15" flow="14.40" occupancy="0.31" speed="9.02" harmonicMeanSpeed="6.46" length="5.00" nVehEntered="15"/>
    <interval begin="0.00" end="3749.00" id="parkingArea_-225518512#1_0_109" nVehContrib="13" flow="12.48" occupancy="0.19" speed="9.59" harmonicMeanSpeed="9.15" length="5.00" nVehEntered="13"/>
    <interval begin="0.00" end="3749.00" id="parkingArea_-225847526_0_176" nVehContrib="15" flow="14.40" occupancy="0.18" speed="11.00" harmonicMeanSpeed="10.96" length="5.00" nVehEntered="15"/>
    <interval begin="0.00" end="3749.00" id="parkingArea_-228186482#1_0_69" nVehContrib="12" flow="11.52" occupancy="0.17" speed="10.57" harmonicMeanSpeed="9.42" length="5.00" nVehEntered="12"/>
    <interval begin="0.00" end="3749.00" id="parkingArea_-228201785#0_0_110" nVehContrib="7" flow="6.72" occupancy="0.10" speed="11.00" harmonicMeanSpeed="10.94" length="5.00" nVehEntered="8"/>
    <interval begin="0.00" end="3749.00" id="parkingArea_-23924510#0_0_37" nVehContrib="0" flow="0.00" occupancy="0.00" speed="-1.00" harmonicMeanSpeed="-1.00" length="-1.00" nVehEntered="0"/>
    <interval begin="0.00" end="3749.00" id="parkingArea_-24310636#2_0_202" nVehContrib="17" flow="16.32" occupancy="0.56" speed="4.03" harmonicMeanSpeed="4.01" length="5.00" nVehEntered="17"/>
    <interval begin="0.00" end="3749.00" id="parkingArea_-247966218#2_0_167" nVehContrib="4" flow="3.84" occupancy="0.05" speed="11.32" harmonicMeanSpeed="11.20" length="5.00" nVehEntered="4"/>
    <interval begin="0.00" end="3749.00" id="parkingArea_-247966218#7_0_160" nVehContrib="3" flow="2.88" occupancy="0.08" speed="6.39" harmonicMeanSpeed="5.32" length="5.00" nVehEntered="3"/>
    <interval begin="0.00" end="3749.00" id="parkingArea_-254299113#0_0_11" nVehContrib="0" flow="0.00" occupancy="0.00" speed="-1.00" harmonicMeanSpeed="-1.00" length="-1.00" nVehEntered="0"/>
    <interval begin="0.00" end="3749.00" id="parkingArea_-254308553_0_144" nVehContrib="2" flow="1.92" occupancy="0.03" speed="9.91" harmonicMeanSpeed="9.86" length="5.00" nVehEntered="2"/>
    <interval begin="0.00" end="3749.00" id="parkingArea_-254396719#1_0_246" nVehContrib="26" flow="24.97" occupancy="0.51" speed="7.89" harmonicMeanSpeed="6.82" length="5.00" nVehEntered="26"/>
    <interval begin="0.00" end="3749.00" id="parkingArea_-254466686#3_0_243" nVehContrib="17" flow="16.32" occupancy="0.24" speed="9.69" harmonicMeanSpeed="9.46" length="5.00" nVehEntered="17"/>
    <interval begin="0.00" end="3749.00" id="parkingArea_-254466686#4_0_245" nVehContrib="28" flow="26.89" occupancy="0.54" speed="7.84" harmonicMeanSpeed="6.98" length="5.00" nVehEntered="28"/>
    <interval begin="0.00" end="3749.00" id="parkingArea_-254756526#1_0_233" nVehContrib="21" flow="20.17" occupancy="0.33" speed="9.44" harmonicMeanSpeed="8.45" length="5.00" nVehEntered="21"/>
    <interval begin="0.00" end="3749.00" id="parkingArea_-254758120#1_0_313" nVehContrib="8" flow="7.68" occupancy="0.10" speed="10.32" harmonicMeanSpeed="10.26" length="5.00" nVehEntered="8"/>
    <interval begin="0.00" end="3749.00" id="parkingArea_-255168048#2_0_9" nVehContrib="5" flow="4.80" occupancy="0.06" speed="10.48" harmonicMeanSpeed="10.38" length="5.00" nVehEntered="5"/>
    <interval begin="0.00" end="3749.00" id="parkingArea_-255168048#3_0_16" nVehContrib="13" flow="12.48" occupancy="0.19" speed="9.96" harmonicMeanSpeed="9.26" length="5.00" nVehEntered="13"/>
    <interval begin="0.00" end="3749.00" id="parkingArea_-255168048#4_0_18" nVehContrib="23" flow="22.09" occupancy="0.41" speed="8.78" harmonicMeanSpeed="7.47" length="5.00" nVehEntered="23"/>
    <interval begin="0.00" end="3749.00" id="parkingArea_-255330036#11_0_91" nVehContrib="15" flow="14.40" occupancy="0.19" speed="10.59" harmonicMeanSpeed="10.30" length="5.00" nVehEntered="15"/>
    <interval begin="0.00" end="3749.00" id="parkingArea_-255330036#12_0_93" nVehContrib="15" flow="14.40" occupancy="0.18" speed="11.01" harmonicMeanSpeed="10.94" length="5.00" nVehEntered="15"/>
    <interval begin="0.00" end="3749.00" id="parkingArea_-255330036#3_0_119" nVehContrib="0" flow="0.00" occupancy="0.00" speed="-1.00" harmonicMeanSpeed="-1.00" length="-1.00" nVehEntered="0"/>
    <interval begin="0.00" end="3749.00" id="parkingArea_-263819574#1_0_210" nVehContrib="1" flow="0.96" occupancy="0.02" speed="7.89" harmonicMeanSpeed="7.89" length="5.00" nVehEntered="1"/>
    <interval begin="0.00" end="3749.00" id="parkingArea_-264874017#4_0_140" nVehContrib="1" flow="0.96" occupancy="0.02" speed="6.37" harmonicMeanSpeed="6.37" length="5.00" nVehEntered="1"/>
    <interval begin="0.00" end="3749.00" id="parkingArea_-26938155#4_0_209" nVehContrib="1" flow="0.96" occupancy="0.01" speed="10.57" harmonicMeanSpeed="10.57" length="5.00" nVehEntered="1"/>
    <interval begin="0.00" end="3749.00" id="parkingArea_-26943758#1_0_185" nVehContrib="5" flow="4.80" occupancy="0.06" speed="11.02" harmonicMeanSpeed="10.94" length="5.00" nVehEntered="5"/>
    <interval begin="0.00" end="3749.00" id="parkingArea_-27166421#2_0_296" nVehContrib="3" flow="2.88" occupancy="0.04" speed="9.59" harmonicMeanSpeed="9.04" length="5.00" nVehEntered="3"/>
    <interval begin="0.00" end="3749.00" id="parkingArea_-27167281#1_0_163" nVehContrib="13" flow="12.48" occupancy="0.16" speed="10.60" harmonicMeanSpeed="10.53" length="5.00" nVehEntered="13"/>
    <interval begin="0.00" end="3749.00" id="parkingArea_-27570786#2_0_23" nVehContrib="6" flow="5.76" occupancy="0.24" speed="4.38" harmonicMeanSpeed="3.39" length="5.00" nVehEntered="6"/>
    <interval begin="0.00" end="3749.00" id="parkingArea_-27571801_0_50" nVehContrib="0" flow="0.00" occupancy="0.00" speed="-1.00" harmonicMeanSpeed="-1.00" length="-1.00" nVehEntered="0"/>
    <interval begin="0.00" end="3749.00" id="parkingArea_-28231602#5_0_221" nVehContrib="0" flow="0.00" occupancy="0.00" speed="-1.00" harmonicMeanSpeed="-1.00" length="-1.00" nVehEntered="0"/>
    <interval begin="0.00" end="3749.00" id="parkingArea_-283537552#1_0_87" nVehContrib="39" flow="37.45" occupancy="0.57" speed="9.55" harmonicMeanSpeed="9.32" length="5.00" nVehEntered="42"/>
    <interval begin="0.00" end="3749.00" id="parkingArea_-283537644#1_0_86" nVehContrib="14" flow="13.44" occupancy="0.28" speed="8.65" harmonicMeanSpeed="7.57" length="5.00" nVehEntered="15"/>
    <interval begin="0.00" end="3749.00" id="parkingArea_-28518571#0_0_166" nVehContrib="19" flow="18.24" occupancy="0.27" speed="10.11" harmonicMeanSpeed="9.30" length="5.00" nVehEntered="19"/>
    <interval begin="0.00" end="3749.00" id="parkingArea_-287958606#1_0_355" nVehContrib="21" flow="20.17" occupancy="0.28" speed="10.03" harmonicMeanSpeed="9.84" length="5.00" nVehEntered="21"/>
    <interval begin="0.00" end="3749.00" id="parkingArea_-28805009#4_0_276" nVehContrib="0" flow="0.00" occupancy="0.00" speed="-1.00" harmonicMeanSpeed="-1.00" length="-1.00" nVehEntered="0"/>
    <interval begin="0.00" end="3749.00" id="parkingArea_-28841114#2_0_280" nVehContrib="0" flow="0.00" occupancy="0.00" speed="-1.00" harmonicMeanSpeed="-1.00" length="-1.00" nVehEntered="0"/>
    <interval begin="0.00" end="3749.00" id="parkingArea_-30029721#1_0_35" nVehContrib="0" flow="0.00" occupancy="0.00" speed="-1.00" harmonicMeanSpeed="-1.00" length="-1.00" nVehEntered="0"/>
    <interval begin="0.00" end="3749.00" id="parkingArea_-30029846#0_0_354" nVehContrib="0" flow="0.00" occupancy="0.00" speed="-1.00" harmonicMeanSpeed="-1.00" length="-1.00" nVehEntered="0"/>
    <interval begin="0.00" end="3749.00" id="parkingArea_-30030283#0_0_279" nVehContrib="0" flow="0.00" occupancy="0.00" speed="-1.00" harmonicMeanSpeed="-1.00" length="-1.00" nVehEntered="0"/>
    <interval begin="0.00" end="3749.00" id="parkingArea_-30831816#3_0_24" nVehContrib="7" flow="6.72" occupancy="0.09" speed="10.78" harmonicMeanSpeed="10.71" length="5.00" nVehEntered="7"/>
    <interval begin="0.00" end="3749.00" id="parkingArea_-30832489_0_334" nVehContrib="2" flow="1.92" occupancy="0.03" speed="9.87" harmonicMeanSpeed="9.80" length="5.00" nVehEntered="2"/>
    <interval begin="0.00" end="3749.00" id="parkingArea_-34128712_0_14" nVehContrib="5" flow="4.80" occupancy="0.06" speed="10.96" harmonicMeanSpeed="10.90" length="5.00" nVehEntered="5"/>
    <interval begin="0.00" end="3749.00" id="parkingArea_-36331312#0_0_158" nVehContrib="13" flow="12.48" occupancy="0.17" speed="10.50" harmonicMeanSpeed="10.36" length="5.00" nVehEntered="13"/>
    <interval begin="0.00" end="3749.00" id="parkingArea_-7373736#0_0_147" nVehContrib="8" flow="7.68" occupancy="0.12" speed="9.80" harmonicMeanSpeed="8.59" length="5.00" nVehEntered="8"/>
    <interval begin="0.00" end="3749.00" id="parkingArea_-7373736#1_0_131" nVehContrib="1" flow="0.96" occupancy="0.01" speed="10.89" harmonicMeanSpeed="10.89" length="5.00" nVehEntered="1"/>
    <interval begin="0.00" end="3749.00" id="parkingArea_-84823308_0_162" nVehContrib="0" flow="0.00" occupancy="0.00" speed="-1.00" harmonicMeanSpeed="-1.00" length="-1.00" nVehEntered="0"/>
    <interval begin="0.00" end="3749.00" id="parkingArea_-87297164#4_0_288" nVehContrib="10" flow="9.60" occupancy="0.12" speed="10.93" harmonicMeanSpeed="10.79" length="5.00" nVehEntered="10"/>
    <interval begin="0.00" end="3749.00" id="parkingArea_-88559691#3_0_75" nVehContrib="2" flow="1.92" occupancy="0.02" speed="11.13" harmonicMeanSpeed="11.00" length="5.00" nVehEntered="2"/>
    <interval begin="0.00" end="3749.00" id="parkingArea_-88559691#6_0_82" nVehContrib="8" flow="7.68" occupancy="0.10" speed="10.37" harmonicMeanSpeed="10.22" length="5.00" nVehEntered="8"/>
    <interval begin="0.00" end="3749.00" id="parkingArea_-88572874#2_0_188" nVehContrib="13" flow="12.48" occupancy="0.20" speed="8.61" harmonicMeanSpeed="8.53" length="5.00" nVehEntered="13"/>
    <interval begin="0.00" end="3749.00" id="parkingArea_-88572877#6_0_76" nVehContrib="20" flow="19.21" occupancy="0.25" speed="10.76" harmonicMeanSpeed="10.62" length="5.00" nVehEntered="20"/>
    <interval begin="0.00" end="3749.00" id="parkingArea_-88572887#0_0_180" nVehContrib="13" flow="12.48" occupancy="0.17" speed="10.36" harmonicMeanSpeed="10.23" length="5.00" nVehEntered="13"/>
    <interval begin="0.00" end="3749.00" id="parkingArea_-88572914#2_0_174" nVehContrib="19" flow="18.24" occupancy="0.24" speed="10.53" harmonicMeanSpeed="10.42" length="5.00" nVehEntered="19"/>
    <interval begin="0.00" end="3749.00" id="parkingArea_-88572932#2_0_136" nVehContrib="19" flow="18.24" occupancy="0.25" speed="10.38" harmonicMeanSpeed="10.26" length="5.00" nVehEntered="19"/>
    <interval begin="0.00" end="3749.00" id="parkingArea_-88572941_0_150" nVehContrib="20" flow="19.21" occupancy="0.26" speed="10.40" harmonicMeanSpeed="10.30" length="5.00" nVehEntered="20"/>
    <interval begin="0.00" end="3749.00" id="parkingArea_-88572970_0_67" nVehContrib="12" flow="11.52" occupancy="0.22" speed="9.98" harmonicMeanSpeed="7.29" length="5.00" nVehEntered="12"/>
    <interval begin="0.00" end="3749.00" id="parkingArea_-8916563#1_0_222" nVehContrib="0" flow="0.00" occupancy="0.00" speed="-1.00" harmonicMeanSpeed="-1.00" length="-1.00" nVehEntered="0"/>
    <interval begin="0.00" end="3749.00" id="parkingArea_-8916563#4_0_219" nVehContrib="0" flow="0.00" occupancy="0.00" speed="-1.00" harmonicMeanSpeed="-1.00" length="-1.00" nVehEntered="0"/>
    <interval begin="0.00" end="3749.00" id="parkingArea_-8916765#1_0_33" nVehContrib="0" flow="0.00" occupancy="0.00" speed="-1.00" harmonicMeanSpeed="-1.00" length="-1.00" nVehEntered="0"/>
    <interval begin="0.00" end="3749.00" id="parkingArea_-8916922#4_0_52" nVehContrib="12" flow="11.52" occupancy="0.15" speed="10.59" harmonicMeanSpeed="10.46" length="5.00" nVehEntered="12"/>
    <interval begin="0.00" end="3749.00" id="parkingArea_-8916930_0_191" nVehContrib="0" flow="0.00" occupancy="0.00" speed="-1.00" harmonicMeanSpeed="-1.00" length="-1.00" nVehEntered="0"/>
    <interval begin="0.00" end="3749.00" id="parkingArea_-8920242#0_0_115" nVehContrib="2" flow="1.92" occupancy="0.03" speed="9.10" harmonicMeanSpeed="9.07" length="5.00" nVehEntered="2"/>
    <interval begin="0.00" end="3749.00" id="parkingArea_-8920734_0_356" nVehContrib="10" flow="9.60" occupancy="0.15" speed="8.88" harmonicMeanSpeed="8.73" length="5.00" nVehEntered="10"/>
    <interval begin="0.00" end="3749.00" id="parkingArea_-8922024#5_0_224" nVehContrib="0" flow="0.00" occupancy="0.00" speed="-1.00" harmonicMeanSpeed="-1.00" length="-1.00" nVehEntered="0"/>
    <interval begin="0.00" end="3749.00" id="parkingArea_-8922307_0_63" nVehContrib="11" flow="10.56" occupancy="0.14" speed="10.65" harmonicMeanSpeed="10.56" length="5.00" nVehEntered="11"/>
    <interval begin="0.00" end="3749.00" id="parkingArea_-8922640#1_0_252" nVehContrib="45" flow="43.21" occupancy="0.68" speed="9.59" harmonicMeanSpeed="9.07" length="5.00" nVehEntered="48"/>
    <interval begin="0.00" end="3749.00" id="parkingArea_-91181760#0_0_294" nVehContrib="18" flow="17.28" occupancy="0.31" speed="8.43" harmonicMeanSpeed="7.67" length="5.00" nVehEntered="18"/>
    <interval begin="0.00" end="3749.00" id="parkingArea_-p1#1_0_330" nVehContrib="0" flow="0.00" occupancy="0.00" speed="-1.00" harmonicMeanSpeed="-1.00" length="-1.00" nVehEntered="0"/>
    <interval begin="0.00" end="3749.00" id="parkingArea_-p2#3_0_126" nVehContrib="0" flow="0.00" occupancy="0.00" speed="-1.00" harmonicMeanSpeed="-1.00" length="-1.00" nVehEntered="0"/>
    <interval begin="0.00" end="3749.00" id="parkingArea_-p4#0_0_102" nVehContrib="5" flow="4.80" occupancy="0.37" speed="1.99" harmonicMeanSpeed="1.78" length="5.00" nVehEntered="5"/>
    <interval begin="0.00" end="3749.00" id="parkingArea_100400942#1_0_276" nVehContrib="1" flow="0.96" occupancy="0.02" speed="7.22" harmonicMeanSpeed="7.22" length="5.00" nVehEntered="1"/>
    <interval begin="0.00" end="3749.00" id="parkingArea_100400947#7_0_311" nVehContrib="5" flow="4.80" occupancy="0.59" speed="2.79" harmonicMeanSpeed="2.73" length="5.00" nVehEntered="9"/>
    <interval begin="0.00" end="3749.00" id="parkingArea_111049100#0_0_64" nVehContrib="23" flow="22.09" occupancy="0.30" speed="10.78" harmonicMeanSpeed="10.36" length="5.00" nVehEntered="23"/>
    <interval begin="0.00" end="3749.00" id="parkingArea_111050389#11_0_183" nVehContrib="3" flow="2.88" occupancy="0.09" speed="5.82" harmonicMeanSpeed="4.46" length="5.00" nVehEntered="3"/>
    <interval begin="0.00" end="3749.00" id="parkingArea_111050389#6_0_170" nVehContrib="0" flow="0.00" occupancy="0.00" speed="-1.00" harmonicMeanSpeed="-1.00" length="-1.00" nVehEntered="0"/>
    <interval begin="0.00" end="3749.00" id="parkingArea_111319423_0_83" nVehContrib="14" flow="13.44" occupancy="0.18" speed="10.45" harmonicMeanSpeed="10.34" length="5.00" nVehEntered="14"/>
    <interval begin="0.00" end="3749.00" id="parkingArea_111550911#2_0_97" nVehContrib="0" flow="0.00" occupancy="0.00" speed="-1.00" harmonicMeanSpeed="-1.00" length="-1.00" nVehEntered="0"/>
    <interval begin="0.00" end="3749.00" id="parkingArea_111552058#0_0_101" nVehContrib="38" flow="36.49" occupancy="0.50" speed="10.22" harmonicMeanSpeed="10.10" length="5.00" nVehEntered="38"/>
    <interval begin="0.00" end="3749.00" id="parkingArea_111560679#0_0_111" nVehContrib="6" flow="5.76" occupancy="0.08" speed="10.73" harmonicMeanSpeed="10.60" length="5.00" nVehEntered="6"/>
    <interval begin="0.00" end="3749.00" id="parkingArea_120256350#0_0_51" nVehContrib="0" flow="0.00" occupancy="0.00" speed="-1.00" harmonicMeanSpeed="-1.00" length="-1.00" nVehEntered="0"/>
    <interval begin="0.00" end="3749.00" id="parkingArea_120256350#3_0_52" nVehContrib="7" flow="6.72" occupancy="0.09" speed="10.38" harmonicMeanSpeed="10.32" length="5.00" nVehEntered="7"/>
    <interval begin="0.00" end="3749.00" id="parkingArea_120256350#8_0_45" nVehContrib="4" flow="3.84" occupancy="0.05" speed="10.44" harmonicMeanSpeed="10.42" length="5.00" nVehEntered="4"/>
    <interval begin="0.00" end="3749.00" id="parkingArea_120256351_0_49" nVehContrib="0" flow="0.00" occupancy="0.00" speed="-1.00" harmonicMeanSpeed="-1.00" length="-1.00" nVehEntered="0"/>
    <interval begin="0.00" end="3749.00" id="parkingArea_123741454#0_0_155" nVehContrib="42" flow="40.33" occupancy="0.20" speed="27.88" harmonicMeanSpeed="27.58" length="5.00" nVehEntered="42"/>
    <interval begin="0.00" end="3749.00" id="parkingArea_123741454#2_0_109" nVehContrib="7" flow="6.72" occupancy="0.04" speed="23.61" harmonicMeanSpeed="21.70" length="5.00" nVehEntered="7"/>
    <interval begin="0.00" end="3749.00" id="parkingArea_123741465_0_169" nVehContrib="9" flow="8.64" occupancy="0.06" speed="21.02" harmonicMeanSpeed="20.80" length="5.00" nVehEntered="9"/>
    <interval begin="0.00" end="3749.00" id="parkingArea_133733593#1_0_357" nVehContrib="5" flow="4.80" occupancy="0.11" speed="7.00" harmonicMeanSpeed="5.98" length="5.00" nVehEntered="5"/>
    <interval begin="0.00" end="3749.00" id="parkingArea_133735130#0_0_120" nVehContrib="17" flow="16.32" occupancy="0.23" speed="10.09" harmonicMeanSpeed="9.98" length="5.00" nVehEntered="17"/>
    <interval begin="0.00" end="3749.00" id="parkingArea_133735130#4_0_118" nVehContrib="28" flow="26.89" occupancy="0.39" speed="9.71" harmonicMeanSpeed="9.52" length="5.00" nVehEntered="28"/>
    <interval begin="0.00" end="3749.00" id="parkingArea_141688972#1_0_146" nVehContrib="0" flow="0.00" occupancy="0.00" speed="-1.00" harmonicMeanSpeed="-1.00" length="-1.00" nVehEntered="0"/>
    <interval begin="0.00" end="3749.00" id="parkingArea_143617589#2_0_121" nVehContrib="0" flow="0.00" occupancy="0.00" speed="-1.00" harmonicMeanSpeed="-1.00" length="-1.00" nVehEntered="0"/>
    <interval begin="0.00" end="3749.00" id="parkingArea_143617593_0_143" nVehContrib="14" flow="13.44" occupancy="0.19" speed="10.14" harmonicMeanSpeed="9.84" length="5.00" nVehEntered="14"/>
    <interval begin="0.00" end="3749.00" id="parkingArea_143666206_0_5" nVehContrib="0" flow="0.00" occupancy="0.00" speed="-1.00" harmonicMeanSpeed="-1.00" length="-1.00" nVehEntered="0"/>
    <interval begin="0.00" end="3749.00" id="parkingArea_143666208#0_0_6" nVehContrib="0" flow="0.00" occupancy="0.00" speed="-1.00" harmonicMeanSpeed="-1.00" length="-1.00" nVehEntered="0"/>
    <interval begin="0.00" end="3749.00" id="parkingArea_144489134#3_0_270" nVehContrib="17" flow="16.32" occupancy="0.21" speed="11.07" harmonicMeanSpeed="10.96" length="5.00" nVehEntered="17"/>
    <interval begin="0.00" end="3749.00" id="parkingArea_144489137#7_0_324" nVehContrib="22" flow="21.13" occupancy="0.29" speed="10.35" harmonicMeanSpeed="10.18" length="5.00" nVehEntered="22"/>
    <interval begin="0.00" end="3749.00" id="parkingArea_148846995_0_284" nVehContrib="52" flow="49.93" occupancy="0.67" speed="10.58" harmonicMeanSpeed="10.33" length="5.00" nVehEntered="52"/>
    <interval begin="0.00" end="3749.00" id="parkingArea_148846996#1_0_282" nVehContrib="56" flow="53.77" occupancy="0.75" speed="10.19" harmonicMeanSpeed="10.02" length="5.00" nVehEntered="56"/>
    <interval begin="0.00" end="3749.00" id="parkingArea_148846998#0_0_285" nVehContrib="2" flow="1.92" occupancy="0.04" speed="6.87" harmonicMeanSpeed="6.67" length="5.00" nVehEntered="2"/>
    <interval begin="0.00" end="3749.00" id="parkingArea_157812260#10_0_172" nVehContrib="13" flow="12.48" occupancy="0.16" speed="10.70" harmonicMeanSpeed="10.60" length="5.00" nVehEntered="13"/>
    <interval begin="0.00" end="3749.00" id="parkingArea_157812260#11_0_151" nVehContrib="0" flow="0.00" occupancy="0.00" speed="-1.00" harmonicMeanSpeed="-1.00" length="-1.00" nVehEntered="0"/>
    <interval begin="0.00" end="3749.00" id="parkingArea_157812260#9_0_172" nVehContrib="0" flow="0.00" occupancy="0.00" speed="-1.00" harmonicMeanSpeed="-1.00" length="-1.00" nVehEntered="0"/>
    <interval begin="0.00" end="3749.00" id="parkingArea_160325575#0_0_47" nVehContrib="1" flow="0.96" occupancy="0.01" speed="11.11" harmonicMeanSpeed="11.11" length="5.00" nVehEntered="1"/>
    <interval begin="0.00" end="3749.00" id="parkingArea_162931810_0_184" nVehContrib="16" flow="15.36" occupancy="0.21" speed="10.35" harmonicMeanSpeed="10.15" length="5.00" nVehEntered="16"/>
    <interval begin="0.00" end="3749.00" id="parkingArea_186400365_0_129" nVehContrib="1" flow="0.96" occupancy="0.01" speed="10.18" harmonicMeanSpeed="10.18" length="5.00" nVehEntered="1"/>
    <interval begin="0.00" end="3749.00" id="parkingArea_186400366#1_0_190" nVehContrib="36" flow="34.57" occupancy="0.49" speed="9.96" harmonicMeanSpeed="9.82" length="5.00" nVehEntered="36"/>
    <interval begin="0.00" end="3749.00" id="parkingArea_186400366#9_0_168" nVehContrib="2" flow="1.92" occupancy="0.05" speed="7.20" harmonicMeanSpeed="6.74" length="5.00" nVehEntered="3"/>
    <interval begin="0.00" end="3749.00" id="parkingArea_196831123#2_0_29" nVehContrib="0" flow="0.00" occupancy="0.00" speed="-1.00" harmonicMeanSpeed="-1.00" length="-1.00" nVehEntered="0"/>
    <interval begin="0.00" end="3749.00" id="parkingArea_202317711_0_70" nVehContrib="8" flow="7.68" occupancy="0.12" speed="10.00" harmonicMeanSpeed="8.55" length="5.00" nVehEntered="8"/>
    <interval begin="0.00" end="3749.00" id="parkingArea_206662304#13_0_290" nVehContrib="10" flow="9.60" occupancy="0.13" speed="10.74" harmonicMeanSpeed="10.61" length="5.00" nVehEntered="10"/>
    <interval begin="0.00" end="3749.00" id="parkingArea_214545530#0_0_139" nVehContrib="6" flow="5.76" occupancy="0.07" speed="11.27" harmonicMeanSpeed="11.21" length="5.00" nVehEntered="6"/>
    <interval begin="0.00" end="3749.00" id="parkingArea_214545530#4_0_141" nVehContrib="5" flow="4.80" occupancy="0.06" speed="10.59" harmonicMeanSpeed="10.52" length="5.00" nVehEntered="5"/>
    <interval begin="0.00" end="3749.00" id="parkingArea_224199018#1_0_236" nVehContrib="0" flow="0.00" occupancy="0.00" speed="-1.00" harmonicMeanSpeed="-1.00" length="-1.00" nVehEntered="0"/>
    <interval begin="0.00" end="3749.00" id="parkingArea_224199018#2_0_235" nVehContrib="0" flow="0.00" occupancy="0.00" speed="-1.00" harmonicMeanSpeed="-1.00" length="-1.00" nVehEntered="0"/>
    <interval begin="0.00" end="3749.00" id="parkingArea_224199018#3_0_234" nVehContrib="1" flow="0.96" occupancy="0.03" speed="4.84" harmonicMeanSpeed="4.84" length="5.00" nVehEntered="1"/>
    <interval begin="0.00" end="3749.00" id="parkingArea_224316514#0_0_261" nVehContrib="5" flow="4.80" occupancy="0.07" speed="10.42" harmonicMeanSpeed="10.24" length="5.00" nVehEntered="5"/>
    <interval begin="0.00" end="3749.00" id="parkingArea_224316520#0_0_356" nVehContrib="42" flow="40.33" occupancy="0.53" speed="10.57" harmonicMeanSpeed="10.49" length="5.00" nVehEntered="42"/>
    <interval begin="0.00" end="3749.00" id="parkingArea_224316521#1_0_356" nVehContrib="30" flow="28.81" occupancy="0.54" speed="7.68" harmonicMeanSpeed="7.37" length="5.00" nVehEntered="30"/>
    <interval begin="0.00" end="3749.00" id="parkingArea_224316521#3_0_354" nVehContrib="19" flow="18.24" occupancy="0.29" speed="10.30" harmonicMeanSpeed="8.86" length="5.00" nVehEntered="19"/>
    <interval begin="0.00" end="3749.00" id="parkingArea_224316522#0_0_265" nVehContrib="6" flow="5.76" occupancy="0.09" speed="11.29" harmonicMeanSpeed="11.18" length="5.00" nVehEntered="7"/>
    <interval begin="0.00" end="3749.00" id="parkingArea_224373751_0_54" nVehContrib="19" flow="18.24" occupancy="0.24" speed="10.79" harmonicMeanSpeed="10.67" length="5.00" nVehEntered="19"/>
    <interval begin="0.00" end="3749.00" id="parkingArea_224373753_0_53" nVehContrib="7" flow="6.72" occupancy="0.12" speed="8.42" harmonicMeanSpeed="8.03" length="5.00" nVehEntered="7"/>
    <interval begin="0.00" end="3749.00" id="parkingArea_224384010#1_0_218" nVehContrib="1" flow="0.96" occupancy="0.01" speed="9.66" harmonicMeanSpeed="9.66" length="5.00" nVehEntered="1"/>
    <interval begin="0.00" end="3749.00" id="parkingArea_224384020#2_0_208" nVehContrib="1" flow="0.96" occupancy="0.01" speed="10.06" harmonicMeanSpeed="10.06" length="5.00" nVehEntered="1"/>
    <interval begin="0.00" end="3749.00" id="parkingArea_224384020#8_0_266" nVehContrib="5" flow="4.80" occupancy="0.07" speed="10.14" harmonicMeanSpeed="10.02" length="5.00" nVehEntered="5"/>
    <interval begin="0.00" end="3749.00" id="parkingArea_224384028#0_0_212" nVehContrib="0" flow="0.00" occupancy="0.00" speed="-1.00" harmonicMeanSpeed="-1.00" length="-1.00" nVehEntered="0"/>
    <interval begin="0.00" end="3749.00" id="parkingArea_224384035#1_0_357" nVehContrib="12" flow="11.52" occupancy="0.15" speed="10.60" harmonicMeanSpeed="10.49" length="5.00" nVehEntered="12"/>